   1.6204335935137089E-006   1234.2375571610119     
   4.8613007805411272E-006   5554.0690072245534     
   8.1021679675685443E-006   9225.9257397785623     
   1.1343035154595963E-005   14008.596273777484     
   1.4583902341623380E-005   16723.918899531713     
   1.7824769528650797E-005   20889.470654950121     
   2.1065636715678217E-005   25024.166471439512     
   2.4306503902705634E-005   31627.337402250927     
   2.7547371089733051E-005   29405.709799361106     
   3.0788238276760468E-005   34373.515966934181     
   3.4029105463787886E-005   35144.914440159817     
   3.7269972650815303E-005   36410.007936249851     
   4.0510839837842726E-005   42457.771966338805     
   4.3751707024870143E-005   50850.587355033684     
   4.6992574211897560E-005   61033.047201612033     
   5.0233441398924977E-005   69734.421979597158     
   5.3474308585952394E-005   64396.344544875785     
   5.6715175772979811E-005   72696.592116783606     
   5.9956042960007228E-005   85841.222100548388     
   6.3196910147034652E-005   78651.788330085474     
   6.6437777334062069E-005   82385.356940497542     
   6.9678644521089486E-005   74733.084086099261     
   7.2919511708116903E-005   74794.795963957309     
   7.6160378895144320E-005   79577.466497956237     
   7.9401246082171737E-005   83773.874192303687     
   8.2642113269199154E-005   85748.654283761294     
   8.5882980456226571E-005   97844.182343939203     
   8.9123847643253988E-005   108859.75254160124     
   9.2364714830281405E-005   98214.453611087505     
   9.5605582017308822E-005   127527.59559366154     
   9.8846449204336240E-005   137185.50447844644     
   1.0208731639136366E-004   132248.55424980240     
   1.0532818357839109E-004   141258.48841707781     
   1.0856905076541850E-004   153693.43180547497     
   1.1180991795244592E-004   143449.26008103858     
   1.1505078513947334E-004   167887.16371282662     
   1.1829165232650076E-004   196120.34783288476     
   1.2153251951352817E-004   217935.49665570565     
   1.2477338670055559E-004   205377.12951159236     
   1.2801425388758299E-004   187418.97305489963     
   1.3125512107461042E-004   181926.61592553311     
   1.3449598826163785E-004   207969.02838163046     
   1.3773685544866526E-004   234073.15271558586     
   1.4097772263569269E-004   232869.77109735386     
   1.4421858982272009E-004   183068.28566590705     
   1.4745945700974752E-004   186277.30331452572     
   1.5070032419677493E-004   152181.49079795275     
   1.5394119138380236E-004   177730.20823118571     
   1.5718205857082976E-004   230401.29598303186     
   1.6042292575785719E-004   202013.83216832858     
   1.6366379294488459E-004   195071.24590929790     
   1.6690466013191202E-004   196182.05971074282     
   1.7014552731893943E-004   183315.13317733927     
   1.7338639450596686E-004   172299.56297967723     
   1.7662726169299426E-004   205068.57012230210     
   1.7986812888002169E-004   224168.39631936874     
   1.8310899606704912E-004   254160.36895838132     
   1.8634986325407653E-004   241046.59491354559     
   1.8959073044110396E-004   240645.46770746823     
   1.9283159762813136E-004   228796.78715872255     
   1.9607246481515879E-004   220527.39552574375     
   1.9931333200218619E-004   234412.56804380513     
   2.0255419918921362E-004   266441.03265213344     
   2.0579506637624103E-004   281221.02739913657     
   2.0903593356326846E-004   286620.81671171595     
   2.1227680075029586E-004   261102.95521741200     
   2.1551766793732329E-004   286589.96077278693     
   2.1875853512435070E-004   231974.94886841215     
   2.2199940231137813E-004   206333.66361839217     
   2.2524026949840553E-004   161746.83186595057     
   2.2848113668543296E-004   163690.75601847918     
   2.3172200387246036E-004   164739.85794206604     
   2.3496287105948780E-004   163783.32383526626     
   2.3820373824651523E-004   148972.47314933414     
   2.4144460543354263E-004   136043.83473807250     
   2.4468547262057003E-004   139623.12365383946     
   2.4792633980759746E-004   149682.15974470170     
   2.5116720699462489E-004   155699.06783586161     
   2.5440807418165232E-004   143819.53134818692     
   2.5764894136867970E-004   137278.07229523352     
   2.6088980855570713E-004   98893.284267526062     
   2.6413067574273456E-004   93462.639016017609     
   2.6737154292976199E-004   81737.382222988002     
   2.7061241011678937E-004   74825.651902886340     
   2.7385327730381680E-004   81243.687200123590     
   2.7709414449084423E-004   92968.943993153211     
   2.8033501167787166E-004   144251.51449319324     
   2.8357587886489904E-004   139160.28456990409     
   2.8681674605192647E-004   150731.26166828856     
   2.9005761323895390E-004   190905.69415387951     
   2.9329848042598133E-004   178470.75076548231     
   2.9653934761300876E-004   161901.11156059572     
   2.9978021480003614E-004   188684.06655098969     
   3.0302108198706357E-004   217812.07289998955     
   3.0626194917409100E-004   212998.54642706161     
   3.0950281636111843E-004   228920.21091443865     
   3.1274368354814580E-004   228580.79558621938     
   3.1598455073517323E-004   206981.63833590169     
   3.1922541792220066E-004   193867.86429106590     
   3.2246628510922810E-004   188622.35467313160     
   3.2570715229625547E-004   184641.93855128737     
   3.2894801948328290E-004   200008.19613794197     
   3.3218888667031033E-004   223026.72657899483     
   3.3542975385733776E-004   190782.27039816338     
   3.3867062104436519E-004   162765.07785060845     
   3.4191148823139257E-004   171559.02044538065     
   3.4515235541842000E-004   197169.44975647161     
   3.4839322260544743E-004   187634.96462740278     
   3.5163408979247486E-004   188745.77842884770     
   3.5487495697950224E-004   192170.78764996951     
   3.5811582416652967E-004   160450.88243093155     
   3.6135669135355710E-004   163845.03571312429     
   3.6459755854058453E-004   116789.72884636073     
   3.6783842572761191E-004   129101.24847904182     
   3.7107929291463934E-004   134933.02093662761     
   3.7432016010166677E-004   162795.93378953743     
   3.7756102728869420E-004   171466.45262859354     
   3.8080189447572157E-004   100837.20842005464     
   3.8404276166274901E-004   89821.638222392619     
   3.8728362884977644E-004   166652.92615566560     
   3.9052449603680387E-004   239256.95045566213     
   3.9376536322383130E-004   325005.60473942338     
   3.9700623041085867E-004   241879.70526462924     
   4.0024709759788610E-004   227840.25305192280     
   4.0348796478491353E-004   206148.52798481801     
   4.0672883197194097E-004   123053.48444895288     
   4.0996969915896834E-004   180661.52242944311     
   4.1321056634599577E-004   108582.04909124000     
   4.1645143353302320E-004   126540.20554793271     
   4.1969230072005063E-004   142554.43785209686     
   4.2293316790707801E-004   172176.13922396116     
   4.2617403509410544E-004   155174.51687406821     
   4.2941490228113287E-004   95560.842863191327     
   4.3265576946816030E-004   241324.29836390683     
   4.3589663665518768E-004   257338.53066807092     
   4.3913750384221511E-004   230617.28755553503     
   4.4237837102924254E-004   145763.45550071547     
   4.4561923821626997E-004   121510.68750250161     
   4.4886010540329740E-004   204173.74789336036     
   4.5210097259032478E-004   195595.79687109136     
   4.5534183977735221E-004   169954.51162107132     
   4.5858270696437964E-004   155452.22032442942     
   4.6182357415140707E-004   135673.56347092424     
   4.6506444133843444E-004   171559.02044538065     
   4.6830530852546187E-004   216114.99625889317     
   4.7154617571248931E-004   149682.15974470173     
   4.7478704289951674E-004   177822.77604797276     
   4.7802791008654411E-004   117190.85605243804     
   4.8126877727357154E-004   88093.705642367204     
   4.8450964446059897E-004   95190.571596043024     
   4.8775051164762640E-004   112408.18551843915     
   4.9099137883465383E-004   127280.74808222931     
   4.9423224602168127E-004   154403.11840084256     
   4.9747311320870870E-004   141567.04780636803     
   5.0071398039573602E-004   200471.03522187730     
   5.0395484758276345E-004   162086.24719416988     
   5.0719571476979088E-004   186369.87113131277     
   5.1043658195681831E-004   109754.57477054297     
   5.1367744914384574E-004   154403.11840084256     
   5.1691831633087317E-004   103645.09886259596     
   5.2015918351790060E-004   141381.91217279388     
   5.2340005070492803E-004   130644.04542549308     
   5.2664091789195535E-004   142492.72597423883     
   5.2988178507898278E-004   217565.22538855733     
   5.3312265226601022E-004   188930.91406242189     
   5.3636351945303765E-004   141104.20872243264     
   5.3960438664006508E-004   146288.00646250890     
   5.4284525382709251E-004   145084.62484427693     
   5.4608612101411994E-004   104601.63296939575     
   5.4932698820114737E-004   56867.495446193607     
   5.5256785538817480E-004   76337.592910408581     
   5.5580872257520212E-004   80749.992177259192     
   5.5904958976222955E-004   69610.998223881063     
   5.6229045694925698E-004   72665.736177854560     
   5.6553132413628441E-004   15829.096670589974     
   5.6877219132331184E-004   0.0000000000000000     
   5.7201305851033927E-004   0.0000000000000000     
   5.7525392569736670E-004   0.0000000000000000     
   5.7849479288439414E-004   0.0000000000000000     
   5.8173566007142146E-004   0.0000000000000000     
   5.8497652725844889E-004   23018.530441052866     
   5.8821739444547632E-004   168596.85030819420     
   5.9145826163250375E-004   283967.20596381981     
   5.9469912881953118E-004   181957.47186446216     
   5.9793999600655861E-004   190936.55009280849     
   6.0118086319358604E-004   156871.59351516460     
   6.0442173038061347E-004   106329.56554942115     
   6.0766259756764090E-004   87507.442802715726     
   6.1090346475466822E-004   53596.765919716934     
   6.1414433194169565E-004   43630.297645641760     
   6.1738519912872309E-004   52701.943690775210     
   6.2062606631575052E-004   71061.227353545240     
   6.2386693350277795E-004   60477.640300889580     
   6.2710780068980538E-004   50788.875477175628     
   6.3034866787683281E-004   99325.267412532412     
   6.3358953506386024E-004   61279.894713044232     
   6.3683040225088756E-004   73437.134651080196     
   6.4007126943791499E-004   85872.078039477390     
   6.4331213662494242E-004   0.0000000000000000     
   6.4655300381196985E-004   0.0000000000000000     
   6.4979387099899728E-004   0.0000000000000000     
   6.5303473818602471E-004   98924.140206455093     
   6.5627560537305214E-004   250797.07161511760     
   6.5951647256007957E-004   248143.46086722144     
   6.6275733974710700E-004   21383.165677814530     
   6.6599820693413433E-004   94203.181550314213     
   6.6923907412116176E-004   207506.18929769509     
   6.7247994130818919E-004   65229.454895959469     
   6.7572080849521662E-004   198588.82294720676     
   6.7896167568224405E-004   165233.55296493042     
   6.8220254286927148E-004   41285.246287035850     
   6.8544341005629891E-004   78219.805185079123     
   6.8868427724332634E-004   181494.63278052679     
   6.9192514443035366E-004   114660.66906025799     
   6.9516601161738109E-004   64303.776728088706     
   6.9840687880440852E-004   21383.165677814526     
   7.0164774599143595E-004   0.0000000000000000     
   7.0488861317846339E-004   0.0000000000000000     
   7.0812948036549082E-004   0.0000000000000000     
   7.1137034755251825E-004   0.0000000000000000     
   7.1461121473954568E-004   0.0000000000000000     
   7.1785208192657311E-004   0.0000000000000000     
   7.2109294911360043E-004   0.0000000000000000     
   7.2433381630062786E-004   0.0000000000000000     
   7.2757468348765529E-004   0.0000000000000000     
   7.3081555067468272E-004   0.0000000000000000     
   7.3405641786171015E-004   0.0000000000000000     
   7.3729728504873758E-004   0.0000000000000000     
   7.4053815223576501E-004   0.0000000000000000     
   7.4377901942279244E-004   0.0000000000000000     
   7.4701988660981977E-004   0.0000000000000000     
   7.5026075379684720E-004   0.0000000000000000     
   7.5350162098387463E-004   0.0000000000000000     
   7.5674248817090206E-004   0.0000000000000000     
   7.5998335535792949E-004   0.0000000000000000     
   7.6322422254495692E-004   0.0000000000000000     
   7.6646508973198435E-004   0.0000000000000000     
   7.6970595691901178E-004   0.0000000000000000     
   7.7294682410603921E-004   0.0000000000000000     
   7.7618769129306653E-004   50048.332942879031     
   7.7942855848009396E-004   70876.091719971097     
   7.8266942566712139E-004   87538.298741644743     
   7.8591029285414882E-004   122775.78099859165     
   7.8915116004117626E-004   130026.92664691257     
   7.9239202722820369E-004   113364.71962523894     
   7.9563289441523112E-004   95005.435962468866     
   7.9887376160225855E-004   102873.70038937032     
   8.0211462878928587E-004   112716.74490772939     
   8.0535549597631330E-004   61773.589735908638     
   8.0859636316334073E-004   131446.29983764776     
   8.1183723035036816E-004   140548.80182171019     
   8.1507809753739559E-004   112716.74490772941     
   8.1831896472442302E-004   62205.572880914988     
   8.2155983191145045E-004   129471.51974619013     
   8.2480069909847788E-004   144251.51449319324     
   8.2804156628550531E-004   102349.14942757689     
   8.3128243347253264E-004   81367.110955839700     
   8.3452330065956007E-004   0.0000000000000000     
   8.3776416784658750E-004   0.0000000000000000     
   8.4100503503361493E-004   0.0000000000000000     
   8.4424590222064236E-004   0.0000000000000000     
   8.4748676940766979E-004   0.0000000000000000     
   8.5072763659469722E-004   0.0000000000000000     
   8.5396850378172465E-004   0.0000000000000000     
   8.5720937096875208E-004   0.0000000000000000     
   8.6045023815577940E-004   0.0000000000000000     
   8.6369110534280683E-004   0.0000000000000000     
   8.6693197252983426E-004   0.0000000000000000     
   8.7017283971686169E-004   0.0000000000000000     
   8.7341370690388912E-004   0.0000000000000000     
   8.7665457409091656E-004   1450.2291296641886     
   8.7989544127794399E-004   93894.622161023974     
   8.8313630846497142E-004   85563.518650187150     
   8.8637717565199874E-004   90068.485733824855     
   8.8961804283902617E-004   125892.23083042320     
   8.9285891002605360E-004   175847.99595651514     
   8.9609977721308103E-004   44401.696118867396     
   8.9934064440010846E-004   0.0000000000000000     
   9.0258151158713589E-004   277.70345036122762     
   9.0582237877416332E-004   104447.35327475063     
   9.0906324596119075E-004   203834.33256514106     
   9.1230411314821818E-004   247804.04553900214     
   9.1554498033524551E-004   60755.343751250803     
   9.1878584752227294E-004   0.0000000000000000     
   9.2202671470930037E-004   0.0000000000000000     
   9.2526758189632780E-004   0.0000000000000000     
   9.2850844908335523E-004   0.0000000000000000     
   9.3174931627038266E-004   0.0000000000000000     
   9.3499018345741009E-004   0.0000000000000000     
   9.3823105064443752E-004   0.0000000000000000     
   9.4147191783146484E-004   0.0000000000000000     
   9.4471278501849227E-004   0.0000000000000000     
   9.4795365220551970E-004   0.0000000000000000     
   9.5119451939254713E-004   0.0000000000000000     
   9.5443538657957456E-004   0.0000000000000000     
   9.5767625376660199E-004   0.0000000000000000     
   9.6091712095362943E-004   0.0000000000000000     
   9.6415798814065686E-004   0.0000000000000000     
   9.6739885532768429E-004   0.0000000000000000     
   9.7063972251471161E-004   0.0000000000000000     
   9.7388058970173904E-004   0.0000000000000000     
   9.7712145688876647E-004   0.0000000000000000     
   9.8036232407579401E-004   0.0000000000000000     
   9.8360319126282133E-004   0.0000000000000000     
   9.8684405844984865E-004   0.0000000000000000     
   9.9008492563687619E-004   0.0000000000000000     
   9.9332579282390351E-004   0.0000000000000000     
   9.9656666001093105E-004   0.0000000000000000     
   9.9980752719795838E-004   0.0000000000000000     
   1.0030483943849859E-003   0.0000000000000000     
   1.0062892615720132E-003   0.0000000000000000     
   1.0095301287590406E-003   0.0000000000000000     
   1.0127709959460681E-003   0.0000000000000000     
   1.0160118631330954E-003   0.0000000000000000     
   1.0192527303201230E-003   0.0000000000000000     
   1.0224935975071503E-003   0.0000000000000000     
   1.0257344646941778E-003   678.83065643855639     
   1.0289753318812051E-003   63995.217338798444     
   1.0322161990682327E-003   84020.721703735879     
   1.0354570662552600E-003   65599.726163107756     
   1.0386979334422873E-003   71215.507048190382     
   1.0419388006293149E-003   57854.885491922425     
   1.0451796678163422E-003   160543.45024771860     
   1.0484205350033697E-003   113210.43993059378     
   1.0516614021903970E-003   0.0000000000000000     
   1.0549022693774246E-003   0.0000000000000000     
   1.0581431365644519E-003   0.0000000000000000     
   1.0613840037514794E-003   170263.07101036154     
   1.0646248709385068E-003   138296.31827989136     
   1.0678657381255341E-003   0.0000000000000000     
   1.0711066053125616E-003   0.0000000000000000     
   1.0743474724995890E-003   90932.452023837541     
   1.0775883396866165E-003   61341.606590902287     
   1.0808292068736438E-003   61989.581308411813     
   1.0840700740606714E-003   93123.223687798338     
   1.0873109412476987E-003   1172.5256793029612     
   1.0905518084347262E-003   0.0000000000000000     
   1.0937926756217535E-003   0.0000000000000000     
   1.0970335428087809E-003   0.0000000000000000     
   1.1002744099958084E-003   0.0000000000000000     
   1.1035152771828357E-003   0.0000000000000000     
   1.1067561443698633E-003   0.0000000000000000     
   1.1099970115568906E-003   0.0000000000000000     
   1.1132378787439181E-003   0.0000000000000000     
   1.1164787459309454E-003   0.0000000000000000     
   1.1197196131179730E-003   0.0000000000000000     
   1.1229604803050003E-003   0.0000000000000000     
   1.1262013474920276E-003   94912.868145681816     
   1.1294422146790552E-003   185845.32016951937     
   1.1326830818660825E-003   159340.06862948663     
   1.1359239490531100E-003   82848.196024432924     
   1.1391648162401373E-003   198249.40761898755     
   1.1424056834271649E-003   182451.16688732657     
   1.1456465506141922E-003   22031.140395324059     
   1.1488874178012195E-003   140085.96273777483     
   1.1521282849882471E-003   168473.42655247808     
   1.1553691521752744E-003   0.0000000000000000     
   1.1586100193623019E-003   0.0000000000000000     
   1.1618508865493293E-003   0.0000000000000000     
   1.1650917537363568E-003   0.0000000000000000     
   1.1683326209233841E-003   0.0000000000000000     
   1.1715734881104117E-003   0.0000000000000000     
   1.1748143552974390E-003   0.0000000000000000     
   1.1780552224844663E-003   0.0000000000000000     
   1.1812960896714938E-003   0.0000000000000000     
   1.1845369568585212E-003   0.0000000000000000     
   1.1877778240455487E-003   0.0000000000000000     
   1.1910186912325760E-003   0.0000000000000000     
   1.1942595584196036E-003   0.0000000000000000     
   1.1975004256066309E-003   0.0000000000000000     
   1.2007412927936584E-003   0.0000000000000000     
   1.2039821599806857E-003   0.0000000000000000     
   1.2072230271677131E-003   0.0000000000000000     
   1.2104638943547406E-003   0.0000000000000000     
   1.2137047615417679E-003   0.0000000000000000     
   1.2169456287287955E-003   0.0000000000000000     
   1.2201864959158228E-003   0.0000000000000000     
   1.2234273631028503E-003   0.0000000000000000     
   1.2266682302898776E-003   0.0000000000000000     
   1.2299090974769052E-003   0.0000000000000000     
   1.2331499646639325E-003   0.0000000000000000     
   1.2363908318509598E-003   0.0000000000000000     
   1.2396316990379874E-003   0.0000000000000000     
   1.2428725662250147E-003   0.0000000000000000     
   1.2461134334120422E-003   0.0000000000000000     
   1.2493543005990696E-003   0.0000000000000000     
   1.2525951677860971E-003   0.0000000000000000     
   1.2558360349731244E-003   0.0000000000000000     
   1.2590769021601517E-003   0.0000000000000000     
   1.2623177693471793E-003   0.0000000000000000     
   1.2655586365342066E-003   0.0000000000000000     
   1.2687995037212341E-003   0.0000000000000000     
   1.2720403709082615E-003   0.0000000000000000     
   1.2752812380952890E-003   0.0000000000000000     
   1.2785221052823163E-003   0.0000000000000000     
   1.2817629724693439E-003   0.0000000000000000     
   1.2850038396563712E-003   0.0000000000000000     
   1.2882447068433985E-003   0.0000000000000000     
   1.2914855740304260E-003   0.0000000000000000     
   1.2947264412174534E-003   0.0000000000000000     
   1.2979673084044809E-003   0.0000000000000000     
   1.3012081755915082E-003   0.0000000000000000     
   1.3044490427785358E-003   0.0000000000000000     
   1.3076899099655631E-003   0.0000000000000000     
   1.3109307771525906E-003   0.0000000000000000     
   1.3141716443396179E-003   0.0000000000000000     
   1.3174125115266453E-003   0.0000000000000000     
   1.3206533787136728E-003   0.0000000000000000     
   1.3238942459007001E-003   0.0000000000000000     
   1.3271351130877277E-003   0.0000000000000000     
   1.3303759802747550E-003   0.0000000000000000     
   1.3336168474617825E-003   0.0000000000000000     
   1.3368577146488099E-003   0.0000000000000000     
   1.3400985818358374E-003   0.0000000000000000     
   1.3433394490228647E-003   0.0000000000000000     
   1.3465803162098920E-003   0.0000000000000000     
   1.3498211833969196E-003   0.0000000000000000     
   1.3530620505839469E-003   0.0000000000000000     
   1.3563029177709744E-003   0.0000000000000000     
   1.3595437849580018E-003   0.0000000000000000     
   1.3627846521450293E-003   0.0000000000000000     
   1.3660255193320566E-003   0.0000000000000000     
   1.3692663865190839E-003   0.0000000000000000     
   1.3725072537061115E-003   0.0000000000000000     
   1.3757481208931388E-003   0.0000000000000000     
   1.3789889880801663E-003   0.0000000000000000     
   1.3822298552671937E-003   0.0000000000000000     
   1.3854707224542212E-003   0.0000000000000000     
   1.3887115896412485E-003   0.0000000000000000     
   1.3919524568282761E-003   0.0000000000000000     
   1.3951933240153034E-003   0.0000000000000000     
   1.3984341912023307E-003   0.0000000000000000     
   1.4016750583893582E-003   253604.96205765888     
   1.4049159255763856E-003   352930.22947019129     
   1.4081567927634131E-003   92938.088054224179     
   1.4113976599504404E-003   455001.67544740689     
   1.4146385271374680E-003   79762.602131530381     
   1.4178793943244953E-003   9904.7563962171207     
   1.4211202615115228E-003   290971.50410070852     
   1.4243611286985502E-003   316242.51808358025     
   1.4276019958855775E-003   0.0000000000000000     
   1.4308428630726050E-003   0.0000000000000000     
   1.4340837302596323E-003   0.0000000000000000     
   1.4373245974466599E-003   0.0000000000000000     
   1.4405654646336872E-003   178439.89482655324     
   1.4438063318207147E-003   438678.88375395257     
   1.4470471990077421E-003   0.0000000000000000     
   1.4502880661947696E-003   0.0000000000000000     
   1.4535289333817969E-003   0.0000000000000000     
   1.4567698005688242E-003   0.0000000000000000     
   1.4600106677558518E-003   0.0000000000000000     
   1.4632515349428791E-003   0.0000000000000000     
   1.4664924021299066E-003   308559.38929025293     
   1.4697332693169340E-003   308559.38929025293     
   1.4729741365039615E-003   0.0000000000000000     
   1.4762150036909888E-003   0.0000000000000000     
   1.4794558708780164E-003   0.0000000000000000     
   1.4826967380650437E-003   0.0000000000000000     
   1.4859376052520710E-003   0.0000000000000000     
   1.4891784724390985E-003   0.0000000000000000     
   1.4924193396261259E-003   0.0000000000000000     
   1.4956602068131534E-003   0.0000000000000000     
   1.4989010740001807E-003   0.0000000000000000     
   1.5021419411872083E-003   0.0000000000000000     
   1.5053828083742356E-003   0.0000000000000000     
   1.5086236755612629E-003   0.0000000000000000     
   1.5118645427482905E-003   0.0000000000000000     
   1.5151054099353178E-003   0.0000000000000000     
   1.5183462771223453E-003   0.0000000000000000     
   1.5215871443093726E-003   0.0000000000000000     
   1.5248280114964002E-003   0.0000000000000000     
   1.5280688786834275E-003   0.0000000000000000     
   1.5313097458704550E-003   0.0000000000000000     
   1.5345506130574824E-003   0.0000000000000000     
   1.5377914802445097E-003   0.0000000000000000     
   1.5410323474315372E-003   0.0000000000000000     
   1.5442732146185645E-003   0.0000000000000000     
   1.5475140818055921E-003   0.0000000000000000     
   1.5507549489926194E-003   0.0000000000000000     
   1.5539958161796469E-003   0.0000000000000000     
   1.5572366833666743E-003   0.0000000000000000     
   1.5604775505537018E-003   0.0000000000000000     
   1.5637184177407291E-003   0.0000000000000000     
   1.5669592849277564E-003   0.0000000000000000     
   1.5702001521147840E-003   0.0000000000000000     
   1.5734410193018113E-003   0.0000000000000000     
   1.5766818864888388E-003   0.0000000000000000     
   1.5799227536758662E-003   0.0000000000000000     
   1.5831636208628937E-003   0.0000000000000000     
   1.5864044880499210E-003   0.0000000000000000     
   1.5896453552369486E-003   0.0000000000000000     
   1.5928862224239759E-003   0.0000000000000000     
   1.5961270896110032E-003   0.0000000000000000     
   1.5993679567980308E-003   0.0000000000000000     
   1.6026088239850581E-003   0.0000000000000000     
   1.6058496911720856E-003   0.0000000000000000     
   1.6090905583591129E-003   0.0000000000000000     
   1.6123314255461405E-003   0.0000000000000000     
   1.6155722927331678E-003   0.0000000000000000     
   1.6188131599201951E-003   0.0000000000000000     
   1.6220540271072227E-003   0.0000000000000000     
   1.6252948942942500E-003   0.0000000000000000     
   1.6285357614812775E-003   0.0000000000000000     
   1.6317766286683048E-003   0.0000000000000000     
   1.6350174958553324E-003   0.0000000000000000     
   1.6382583630423597E-003   0.0000000000000000     
   1.6414992302293872E-003   0.0000000000000000     
   1.6447400974164146E-003   0.0000000000000000     
   1.6479809646034419E-003   0.0000000000000000     
   1.6512218317904694E-003   0.0000000000000000     
   1.6544626989774967E-003   0.0000000000000000     
   1.6577035661645243E-003   0.0000000000000000     
   1.6609444333515516E-003   0.0000000000000000     
   1.6641853005385791E-003   0.0000000000000000     
   1.6674261677256065E-003   0.0000000000000000     
   1.6706670349126340E-003   0.0000000000000000     
   1.6739079020996613E-003   0.0000000000000000     
   1.6771487692866887E-003   0.0000000000000000     
   1.6803896364737162E-003   0.0000000000000000     
   1.6836305036607435E-003   0.0000000000000000     
   1.6868713708477711E-003   0.0000000000000000     
   1.6901122380347984E-003   0.0000000000000000     
   1.6933531052218259E-003   0.0000000000000000     
   1.6965939724088532E-003   0.0000000000000000     
   1.6998348395958808E-003   0.0000000000000000     
   1.7030757067829081E-003   0.0000000000000000     
   1.7063165739699354E-003   0.0000000000000000     
   1.7095574411569630E-003   0.0000000000000000     
   1.7127983083439903E-003   0.0000000000000000     
   1.7160391755310178E-003   0.0000000000000000     
   1.7192800427180451E-003   0.0000000000000000     
   1.7225209099050727E-003   0.0000000000000000     
   1.7257617770921000E-003   0.0000000000000000     
   1.7290026442791273E-003   0.0000000000000000     
   1.7322435114661549E-003   0.0000000000000000     
   1.7354843786531822E-003   0.0000000000000000     
   1.7387252458402097E-003   0.0000000000000000     
   1.7419661130272370E-003   0.0000000000000000     
   1.7452069802142646E-003   0.0000000000000000     
   1.7484478474012919E-003   0.0000000000000000     
   1.7516887145883194E-003   0.0000000000000000     
   1.7549295817753468E-003   0.0000000000000000     
   1.7581704489623741E-003   0.0000000000000000     
   1.7614113161494016E-003   0.0000000000000000     
   1.7646521833364290E-003   0.0000000000000000     
   1.7678930505234565E-003   0.0000000000000000     
   1.7711339177104838E-003   0.0000000000000000     
   1.7743747848975114E-003   0.0000000000000000     
   1.7776156520845387E-003   0.0000000000000000     
   1.7808565192715662E-003   0.0000000000000000     
   1.7840973864585935E-003   0.0000000000000000     
   1.7873382536456209E-003   0.0000000000000000     
   1.7905791208326484E-003   0.0000000000000000     
   1.7938199880196757E-003   0.0000000000000000     
   1.7970608552067033E-003   0.0000000000000000     
   1.8003017223937306E-003   0.0000000000000000     
   1.8035425895807581E-003   0.0000000000000000     
   1.8067834567677854E-003   0.0000000000000000     
   1.8100243239548130E-003   0.0000000000000000     
   1.8132651911418403E-003   0.0000000000000000     
   1.8165060583288676E-003   0.0000000000000000     
   1.8197469255158952E-003   0.0000000000000000     
   1.8229877927029225E-003   0.0000000000000000     
   1.8262286598899500E-003   0.0000000000000000     
   1.8294695270769773E-003   0.0000000000000000     
   1.8327103942640049E-003   0.0000000000000000     